Variables=  "X" "U" "Rho" "P" "T" "N2" "H2" "O2" 
Zone T="1D-Reactive Shock Tube"
I=00000400, DATAPACKING=POINT 
-.997500E+01    0.000000E+00    0.100003E-02    0.229466E+07    0.800000E+03    0.730000E+00    -.812902E-83    0.270000E+00
-.992500E+01    0.000000E+00    0.100003E-02    0.229466E+07    0.800000E+03    0.730000E+00    -.844941E-83    0.270000E+00
-.987500E+01    0.000000E+00    0.100003E-02    0.229466E+07    0.800000E+03    0.730000E+00    0.574284E-82    0.270000E+00
-.982500E+01    0.000000E+00    0.100003E-02    0.229466E+07    0.800000E+03    0.730000E+00    0.214901E-81    0.270000E+00
-.977500E+01    0.000000E+00    0.100003E-02    0.229466E+07    0.800000E+03    0.730000E+00    -.198297E-81    0.270000E+00
-.972500E+01    0.000000E+00    0.100003E-02    0.229466E+07    0.800000E+03    0.730000E+00    -.279937E-80    0.270000E+00
-.967500E+01    0.000000E+00    0.100003E-02    0.229466E+07    0.800000E+03    0.730000E+00    -.357030E-80    0.270000E+00
-.962500E+01    0.000000E+00    0.100003E-02    0.229466E+07    0.800000E+03    0.730000E+00    0.234935E-79    0.270000E+00
-.957500E+01    0.000000E+00    0.100003E-02    0.229466E+07    0.800000E+03    0.730000E+00    0.875997E-79    0.270000E+00
-.952500E+01    0.000000E+00    0.100003E-02    0.229466E+07    0.800000E+03    0.730000E+00    -.756926E-79    0.270000E+00
-.947500E+01    0.000000E+00    0.100003E-02    0.229466E+07    0.800000E+03    0.730000E+00    -.110764E-77    0.270000E+00
-.942500E+01    0.000000E+00    0.100003E-02    0.229466E+07    0.800000E+03    0.730000E+00    -.146949E-77    0.270000E+00
-.937500E+01    0.000000E+00    0.100003E-02    0.229466E+07    0.800000E+03    0.730000E+00    0.887490E-77    0.270000E+00
-.932500E+01    0.000000E+00    0.100003E-02    0.229466E+07    0.800000E+03    0.730000E+00    0.340729E-76    0.270000E+00
-.927500E+01    0.000000E+00    0.100003E-02    0.229466E+07    0.800000E+03    0.730000E+00    -.240037E-76    0.270000E+00
-.922500E+01    0.000000E+00    0.100003E-02    0.229466E+07    0.800000E+03    0.730000E+00    -.410624E-75    0.270000E+00
-.917500E+01    0.000000E+00    0.100003E-02    0.229466E+07    0.800000E+03    0.730000E+00    -.597433E-75    0.270000E+00
-.912500E+01    0.000000E+00    0.100003E-02    0.229466E+07    0.800000E+03    0.730000E+00    0.306770E-74    0.270000E+00
-.907500E+01    0.000000E+00    0.100003E-02    0.229466E+07    0.800000E+03    0.730000E+00    0.125933E-73    0.270000E+00
-.902500E+01    0.000000E+00    0.100003E-02    0.229466E+07    0.800000E+03    0.730000E+00    -.570947E-74    0.270000E+00
-.897500E+01    0.000000E+00    0.100003E-02    0.229466E+07    0.800000E+03    0.730000E+00    -.141871E-72    0.270000E+00
-.892500E+01    0.000000E+00    0.100003E-02    0.229466E+07    0.800000E+03    0.730000E+00    -.236070E-72    0.270000E+00
-.887500E+01    0.000000E+00    0.100003E-02    0.229466E+07    0.800000E+03    0.730000E+00    0.958725E-72    0.270000E+00
-.882500E+01    0.000000E+00    0.100003E-02    0.229466E+07    0.800000E+03    0.730000E+00    0.439313E-71    0.270000E+00
-.877500E+01    0.000000E+00    0.100003E-02    0.229466E+07    0.800000E+03    0.730000E+00    -.547713E-72    0.270000E+00
-.872500E+01    0.000000E+00    0.100003E-02    0.229466E+07    0.800000E+03    0.730000E+00    -.453097E-70    0.270000E+00
-.867500E+01    0.000000E+00    0.100003E-02    0.229466E+07    0.800000E+03    0.730000E+00    -.889500E-70    0.270000E+00
-.862500E+01    0.000000E+00    0.100003E-02    0.229466E+07    0.800000E+03    0.730000E+00    0.265126E-69    0.270000E+00
-.857500E+01    0.000000E+00    0.100003E-02    0.229466E+07    0.800000E+03    0.730000E+00    0.143309E-68    0.270000E+00
-.852500E+01    0.000000E+00    0.100003E-02    0.229466E+07    0.800000E+03    0.730000E+00    0.384839E-69    0.270000E+00
-.847500E+01    0.000000E+00    0.100003E-02    0.229466E+07    0.800000E+03    0.730000E+00    -.132140E-67    0.270000E+00
-.842500E+01    0.000000E+00    0.100003E-02    0.229466E+07    0.800000E+03    0.730000E+00    -.313775E-67    0.270000E+00
-.837500E+01    0.000000E+00    0.100003E-02    0.229466E+07    0.800000E+03    0.730000E+00    0.621438E-67    0.270000E+00
-.832500E+01    0.000000E+00    0.100003E-02    0.229466E+07    0.800000E+03    0.730000E+00    0.431917E-66    0.270000E+00
-.827500E+01    0.000000E+00    0.100003E-02    0.229466E+07    0.800000E+03    0.730000E+00    0.311004E-66    0.270000E+00
-.822500E+01    0.000000E+00    0.100003E-02    0.229466E+07    0.800000E+03    0.730000E+00    -.345397E-65    0.270000E+00
-.817500E+01    0.000000E+00    0.100003E-02    0.229466E+07    0.800000E+03    0.730000E+00    -.101895E-64    0.270000E+00
-.812500E+01    0.000000E+00    0.100003E-02    0.229466E+07    0.800000E+03    0.730000E+00    0.110500E-64    0.270000E+00
-.807500E+01    0.000000E+00    0.100003E-02    0.229466E+07    0.800000E+03    0.730000E+00    0.118408E-63    0.270000E+00
-.802500E+01    0.000000E+00    0.100003E-02    0.229466E+07    0.800000E+03    0.730000E+00    0.146526E-63    0.270000E+00
-.797500E+01    0.000000E+00    0.100003E-02    0.229466E+07    0.800000E+03    0.730000E+00    -.784269E-63    0.270000E+00
-.792500E+01    0.000000E+00    0.100003E-02    0.229466E+07    0.800000E+03    0.730000E+00    -.299680E-62    0.270000E+00
-.787500E+01    0.000000E+00    0.100003E-02    0.229466E+07    0.800000E+03    0.730000E+00    0.829521E-63    0.270000E+00
-.782500E+01    0.000000E+00    0.100003E-02    0.229466E+07    0.800000E+03    0.730000E+00    0.289027E-61    0.270000E+00
-.777500E+01    0.000000E+00    0.100003E-02    0.229466E+07    0.800000E+03    0.730000E+00    0.535907E-61    0.270000E+00
-.772500E+01    0.000000E+00    0.100003E-02    0.229466E+07    0.800000E+03    0.730000E+00    -.145272E-60    0.270000E+00
-.767500E+01    0.589820E-11    0.100003E-02    0.229466E+07    0.800000E+03    0.730000E+00    -.783823E-60    0.270000E+00
-.762500E+01    0.274732E-10    0.100003E-02    0.229466E+07    0.800000E+03    0.730000E+00    -.377088E-60    0.270000E+00
-.757500E+01    0.116878E-09    0.100003E-02    0.229466E+07    0.800000E+03    0.730000E+00    0.607833E-59    0.270000E+00
-.752500E+01    0.400767E-09    0.100003E-02    0.229466E+07    0.800000E+03    0.730000E+00    0.161838E-58    0.270000E+00
-.747500E+01    0.119377E-08    0.100003E-02    0.229466E+07    0.800000E+03    0.730000E+00    -.182597E-58    0.270000E+00
-.742500E+01    0.313241E-08    0.100003E-02    0.229466E+07    0.800000E+03    0.730000E+00    -.177992E-57    0.270000E+00
-.737500E+01    0.803071E-08    0.100003E-02    0.229466E+07    0.800000E+03    0.730000E+00    -.222733E-57    0.270000E+00
-.732500E+01    0.200540E-07    0.100003E-02    0.229466E+07    0.800000E+03    0.730000E+00    0.103538E-56    0.270000E+00
-.727500E+01    0.495331E-07    0.100003E-02    0.229466E+07    0.800000E+03    0.730000E+00    0.408284E-56    0.270000E+00
-.722500E+01    0.121168E-06    0.100003E-02    0.229466E+07    0.800000E+03    0.730000E+00    0.529067E-58    0.270000E+00
-.717500E+01    0.293434E-06    0.100003E-02    0.229466E+07    0.800000E+03    0.730000E+00    -.337811E-55    0.270000E+00
-.712500E+01    0.703010E-06    0.100003E-02    0.229466E+07    0.800000E+03    0.730000E+00    -.726478E-55    0.270000E+00
-.707500E+01    0.166641E-05    0.100003E-02    0.229466E+07    0.800000E+03    0.730000E+00    0.120851E-54    0.270000E+00
-.702500E+01    0.390959E-05    0.100003E-02    0.229466E+07    0.800000E+03    0.730000E+00    0.848520E-54    0.270000E+00
-.697500E+01    0.907907E-05    0.100003E-02    0.229466E+07    0.800000E+03    0.730000E+00    0.845831E-54    0.270000E+00
-.692500E+01    0.208664E-04    0.100003E-02    0.229466E+07    0.800000E+03    0.730000E+00    -.496508E-53    0.270000E+00
-.687500E+01    0.474530E-04    0.100003E-02    0.229466E+07    0.800000E+03    0.730000E+00    -.173710E-52    0.270000E+00
-.682500E+01    0.106755E-03    0.100003E-02    0.229466E+07    0.800000E+03    0.730000E+00    0.167736E-53    0.270000E+00
-.677500E+01    0.237530E-03    0.100003E-02    0.229466E+07    0.800000E+03    0.730000E+00    0.139032E-51    0.270000E+00
-.672500E+01    0.522563E-03    0.100003E-02    0.229466E+07    0.800000E+03    0.730000E+00    0.286650E-51    0.270000E+00
-.667500E+01    0.113640E-02    0.100003E-02    0.229466E+07    0.800000E+03    0.730000E+00    -.446743E-51    0.270000E+00
-.662500E+01    0.244209E-02    0.100003E-02    0.229466E+07    0.800000E+03    0.730000E+00    -.314108E-50    0.270000E+00
-.657500E+01    0.518438E-02    0.100003E-02    0.229466E+07    0.800000E+03    0.730000E+00    -.343094E-50    0.270000E+00
-.652500E+01    0.108689E-01    0.100003E-02    0.229466E+07    0.800000E+03    0.730000E+00    0.159745E-49    0.270000E+00
-.647500E+01    0.224938E-01    0.100003E-02    0.229466E+07    0.800000E+03    0.730000E+00    0.599261E-49    0.270000E+00
-.642500E+01    0.459359E-01    0.100003E-02    0.229466E+07    0.800000E+03    0.730000E+00    0.133851E-49    0.270000E+00
-.637500E+01    0.925257E-01    0.100003E-02    0.229465E+07    0.800000E+03    0.730000E+00    -.403843E-48    0.270000E+00
-.632500E+01    0.183729E+00    0.100003E-02    0.229465E+07    0.799999E+03    0.730000E+00    -.974125E-48    0.270000E+00
-.627500E+01    0.359469E+00    0.100002E-02    0.229464E+07    0.799998E+03    0.730000E+00    0.730309E-48    0.270000E+00
-.622500E+01    0.692552E+00    0.100002E-02    0.229462E+07    0.799997E+03    0.730000E+00    0.839108E-47    0.270000E+00
-.617500E+01    0.131297E+01    0.100001E-02    0.229459E+07    0.799993E+03    0.730000E+00    0.133056E-46    0.270000E+00
-.612500E+01    0.244761E+01    0.999986E-03    0.229452E+07    0.799988E+03    0.730000E+00    -.279190E-46    0.270000E+00
-.607500E+01    0.448270E+01    0.999949E-03    0.229441E+07    0.799977E+03    0.730000E+00    -.150452E-45    0.270000E+00
-.602500E+01    0.805798E+01    0.999885E-03    0.229421E+07    0.799959E+03    0.730000E+00    -.146535E-45    0.270000E+00
-.597500E+01    0.142012E+02    0.999775E-03    0.229387E+07    0.799928E+03    0.730000E+00    0.654574E-45    0.270000E+00
-.592500E+01    0.245075E+02    0.999590E-03    0.229329E+07    0.799876E+03    0.730000E+00    0.238483E-44    0.270000E+00
-.587500E+01    0.413570E+02    0.999287E-03    0.229236E+07    0.799791E+03    0.730000E+00    0.119281E-44    0.270000E+00
-.582500E+01    0.681416E+02    0.998807E-03    0.229087E+07    0.799656E+03    0.730000E+00    -.120081E-43    0.270000E+00
-.577500E+01    0.109440E+03    0.998066E-03    0.228857E+07    0.799448E+03    0.730000E+00    -.341547E-43    0.270000E+00
-.572500E+01    0.171038E+03    0.996962E-03    0.228515E+07    0.799137E+03    0.730000E+00    -.646837E-44    0.270000E+00
-.567500E+01    0.259665E+03    0.995375E-03    0.228024E+07    0.798689E+03    0.730000E+00    0.181924E-42    0.270000E+00
-.562500E+01    0.382295E+03    0.993183E-03    0.227345E+07    0.798071E+03    0.730000E+00    0.455139E-42    0.270000E+00
-.557500E+01    0.544899E+03    0.990283E-03    0.226449E+07    0.797251E+03    0.730000E+00    0.613236E-43    0.270000E+00
-.552500E+01    0.750549E+03    0.986625E-03    0.225319E+07    0.796214E+03    0.730000E+00    -.229185E-41    0.270000E+00
-.547500E+01    0.997029E+03    0.982256E-03    0.223971E+07    0.794971E+03    0.730000E+00    -.579078E-41    0.270000E+00
-.542500E+01    0.127485E+04    0.977352E-03    0.222460E+07    0.793572E+03    0.730000E+00    -.228990E-41    0.270000E+00
-.537500E+01    0.156750E+04    0.972207E-03    0.220878E+07    0.792098E+03    0.730000E+00    0.234261E-40    0.270000E+00
-.532500E+01    0.185520E+04    0.967172E-03    0.219332E+07    0.790649E+03    0.730000E+00    0.695547E-40    0.270000E+00
-.527500E+01    0.212016E+04    0.962555E-03    0.217917E+07    0.789316E+03    0.730000E+00    0.612500E-40    0.270000E+00
-.522500E+01    0.235014E+04    0.958561E-03    0.216695E+07    0.788160E+03    0.730000E+00    -.178698E-39    0.270000E+00
-.517500E+01    0.253926E+04    0.955288E-03    0.215695E+07    0.787209E+03    0.730000E+00    -.753872E-39    0.270000E+00
-.512500E+01    0.268699E+04    0.952737E-03    0.214916E+07    0.786467E+03    0.730000E+00    -.111616E-38    0.270000E+00
-.507500E+01    0.279678E+04    0.950846E-03    0.214339E+07    0.785915E+03    0.730000E+00    0.645840E-39    0.270000E+00
-.502500E+01    0.287440E+04    0.949508E-03    0.213931E+07    0.785525E+03    0.730000E+00    0.707532E-38    0.270000E+00
-.497500E+01    0.292699E+04    0.948609E-03    0.213657E+07    0.785262E+03    0.730000E+00    0.160569E-37    0.270000E+00
-.492500E+01    0.296066E+04    0.948022E-03    0.213478E+07    0.785091E+03    0.730000E+00    0.938992E-38    0.270000E+00
-.487500E+01    0.298210E+04    0.947667E-03    0.213370E+07    0.784987E+03    0.730000E+00    -.542321E-37    0.270000E+00
-.482500E+01    0.299427E+04    0.947443E-03    0.213302E+07    0.784921E+03    0.730000E+00    -.200695E-36    0.270000E+00
-.477500E+01    0.300184E+04    0.947323E-03    0.213265E+07    0.784886E+03    0.730000E+00    -.284439E-36    0.270000E+00
-.472500E+01    0.300581E+04    0.947256E-03    0.213245E+07    0.784867E+03    0.730000E+00    0.268149E-36    0.270000E+00
-.467500E+01    0.300744E+04    0.947215E-03    0.213232E+07    0.784855E+03    0.730000E+00    0.231123E-35    0.270000E+00
-.462500E+01    0.300895E+04    0.947203E-03    0.213229E+07    0.784851E+03    0.730000E+00    0.499053E-35    0.270000E+00
-.457500E+01    0.300952E+04    0.947191E-03    0.213225E+07    0.784848E+03    0.730000E+00    0.890826E-36    0.270000E+00
-.452500E+01    0.300956E+04    0.947184E-03    0.213223E+07    0.784846E+03    0.730000E+00    -.255243E-34    0.270000E+00
-.447500E+01    0.300980E+04    0.947181E-03    0.213222E+07    0.784845E+03    0.730000E+00    -.730362E-34    0.270000E+00
-.442500E+01    0.300998E+04    0.947183E-03    0.213222E+07    0.784845E+03    0.730000E+00    -.487466E-34    0.270000E+00
-.437500E+01    0.300993E+04    0.947182E-03    0.213222E+07    0.784845E+03    0.730000E+00    0.279114E-33    0.270000E+00
-.432500E+01    0.300983E+04    0.947182E-03    0.213222E+07    0.784845E+03    0.730000E+00    0.968396E-33    0.270000E+00
-.427500E+01    0.300977E+04    0.947183E-03    0.213222E+07    0.784845E+03    0.730000E+00    0.870341E-33    0.270000E+00
-.422500E+01    0.300978E+04    0.947184E-03    0.213223E+07    0.784846E+03    0.730000E+00    -.309882E-32    0.270000E+00
-.417500E+01    0.300977E+04    0.947184E-03    0.213223E+07    0.784846E+03    0.730000E+00    -.119916E-31    0.270000E+00
-.412500E+01    0.300975E+04    0.947184E-03    0.213223E+07    0.784846E+03    0.730000E+00    -.117327E-31    0.270000E+00
-.407500E+01    0.300977E+04    0.947183E-03    0.213223E+07    0.784846E+03    0.730000E+00    0.353790E-31    0.270000E+00
-.402500E+01    0.300984E+04    0.947182E-03    0.213222E+07    0.784845E+03    0.730000E+00    0.140520E-30    0.270000E+00
-.397500E+01    0.300996E+04    0.947181E-03    0.213222E+07    0.784845E+03    0.730000E+00    0.133608E-30    0.270000E+00
-.392500E+01    0.301009E+04    0.947178E-03    0.213221E+07    0.784844E+03    0.730000E+00    -.414319E-30    0.270000E+00
-.387500E+01    0.301020E+04    0.947176E-03    0.213221E+07    0.784844E+03    0.730000E+00    -.156851E-29    0.270000E+00
-.382500E+01    0.301030E+04    0.947174E-03    0.213220E+07    0.784843E+03    0.730000E+00    -.131738E-29    0.270000E+00
-.377500E+01    0.301041E+04    0.947172E-03    0.213219E+07    0.784843E+03    0.730000E+00    0.491024E-29    0.270000E+00
-.372500E+01    0.301052E+04    0.947171E-03    0.213219E+07    0.784842E+03    0.730000E+00    0.167520E-28    0.270000E+00
-.367500E+01    0.301061E+04    0.947169E-03    0.213218E+07    0.784842E+03    0.730000E+00    0.110764E-28    0.270000E+00
-.362500E+01    0.301070E+04    0.947167E-03    0.213218E+07    0.784841E+03    0.730000E+00    -.579348E-28    0.270000E+00
-.357500E+01    0.301079E+04    0.947166E-03    0.213217E+07    0.784841E+03    0.730000E+00    -.172039E-27    0.270000E+00
-.352500E+01    0.301087E+04    0.947164E-03    0.213217E+07    0.784841E+03    0.730000E+00    -.736706E-28    0.270000E+00
-.347500E+01    0.301094E+04    0.947163E-03    0.213217E+07    0.784840E+03    0.730000E+00    0.671311E-27    0.270000E+00
-.342500E+01    0.301101E+04    0.947162E-03    0.213216E+07    0.784840E+03    0.730000E+00    0.171087E-26    0.270000E+00
-.337500E+01    0.301108E+04    0.947160E-03    0.213216E+07    0.784840E+03    0.730000E+00    0.272212E-27    0.270000E+00
-.332500E+01    0.301114E+04    0.947159E-03    0.213216E+07    0.784840E+03    0.730000E+00    -.756669E-26    0.270000E+00
-.327500E+01    0.301119E+04    0.947158E-03    0.213215E+07    0.784839E+03    0.730000E+00    -.166385E-25    0.270000E+00
-.322500E+01    0.301123E+04    0.947158E-03    0.213215E+07    0.784839E+03    0.730000E+00    0.192249E-26    0.270000E+00
-.317500E+01    0.301127E+04    0.947157E-03    0.213215E+07    0.784839E+03    0.730000E+00    0.824085E-25    0.270000E+00
-.312500E+01    0.301131E+04    0.947156E-03    0.213215E+07    0.784839E+03    0.730000E+00    0.160102E-24    0.270000E+00
-.307500E+01    0.301136E+04    0.947155E-03    0.213214E+07    0.784839E+03    0.730000E+00    -.557500E-25    0.270000E+00
-.302500E+01    0.301140E+04    0.947154E-03    0.213214E+07    0.784838E+03    0.730000E+00    -.862258E-24    0.270000E+00
-.297500E+01    0.301145E+04    0.947154E-03    0.213214E+07    0.784838E+03    0.730000E+00    -.154009E-23    0.270000E+00
-.292500E+01    0.301149E+04    0.947153E-03    0.213214E+07    0.784838E+03    0.730000E+00    0.743564E-24    0.270000E+00
-.287500E+01    0.301152E+04    0.947152E-03    0.213214E+07    0.784838E+03    0.730000E+00    0.861347E-23    0.270000E+00
-.282500E+01    0.301156E+04    0.947151E-03    0.213213E+07    0.784838E+03    0.730000E+00    0.148695E-22    0.270000E+00
-.277500E+01    0.301160E+04    0.947151E-03    0.213213E+07    0.784838E+03    0.730000E+00    -.712195E-23    0.270000E+00
-.272500E+01    0.301164E+04    0.947150E-03    0.213213E+07    0.784838E+03    0.730000E+00    -.815013E-22    0.270000E+00
-.267500E+01    0.301167E+04    0.947149E-03    0.213213E+07    0.784837E+03    0.730000E+00    -.143282E-21    0.270000E+00
-.262500E+01    0.301170E+04    0.947149E-03    0.213213E+07    0.784837E+03    0.730000E+00    0.479678E-22    0.270000E+00
-.257500E+01    0.301173E+04    0.947148E-03    0.213213E+07    0.784837E+03    0.730000E+00    0.722980E-21    0.270000E+00
-.252500E+01    0.301175E+04    0.947148E-03    0.213212E+07    0.784837E+03    0.730000E+00    0.135841E-20    0.270000E+00
-.247500E+01    0.301178E+04    0.947147E-03    0.213212E+07    0.784837E+03    0.730000E+00    -.112491E-21    0.270000E+00
-.242500E+01    0.301182E+04    0.947146E-03    0.213212E+07    0.784837E+03    0.730000E+00    -.592105E-20    0.270000E+00
-.237500E+01    0.301185E+04    0.947146E-03    0.213212E+07    0.784837E+03    0.730000E+00    -.124170E-19    0.270000E+00
-.232500E+01    0.301188E+04    0.947145E-03    0.213212E+07    0.784837E+03    0.730000E+00    -.284504E-20    0.270000E+00
-.227500E+01    0.301190E+04    0.947145E-03    0.213212E+07    0.784837E+03    0.730000E+00    0.441602E-19    0.270000E+00
-.222500E+01    0.301192E+04    0.947144E-03    0.213212E+07    0.784837E+03    0.730000E+00    0.108265E-18    0.270000E+00
-.217500E+01    0.301194E+04    0.947144E-03    0.213211E+07    0.784837E+03    0.730000E+00    0.645700E-19    0.270000E+00
-.212500E+01    0.301197E+04    0.947143E-03    0.213211E+07    0.784837E+03    0.730000E+00    -.267199E-18    0.270000E+00
-.207500E+01    0.301200E+04    0.947142E-03    0.213211E+07    0.784837E+03    0.730000E+00    -.812948E-18    0.270000E+00
-.202500E+01    0.301202E+04    0.947142E-03    0.213211E+07    0.784837E+03    0.730000E+00    -.706365E-18    0.270000E+00
-.197500E+01    0.301204E+04    0.947142E-03    0.213211E+07    0.784837E+03    0.730000E+00    0.260367E-17    0.270000E+00
-.192500E+01    0.301205E+04    0.947141E-03    0.213211E+07    0.784837E+03    0.730000E+00    0.157020E-16    0.270000E+00
-.187500E+01    0.301206E+04    0.947141E-03    0.213211E+07    0.784837E+03    0.730000E+00    0.561962E-16    0.270000E+00
-.182500E+01    0.301209E+04    0.947140E-03    0.213211E+07    0.784837E+03    0.730000E+00    0.172621E-15    0.270000E+00
-.177500E+01    0.301212E+04    0.947140E-03    0.213210E+07    0.784837E+03    0.730000E+00    0.498636E-15    0.270000E+00
-.172500E+01    0.301215E+04    0.947139E-03    0.213210E+07    0.784837E+03    0.730000E+00    0.139879E-14    0.270000E+00
-.167500E+01    0.301216E+04    0.947138E-03    0.213210E+07    0.784837E+03    0.730000E+00    0.385682E-14    0.270000E+00
-.162500E+01    0.301217E+04    0.947138E-03    0.213210E+07    0.784837E+03    0.730000E+00    0.104989E-13    0.270000E+00
-.157500E+01    0.301217E+04    0.947138E-03    0.213210E+07    0.784837E+03    0.730000E+00    0.282603E-13    0.270000E+00
-.152500E+01    0.301219E+04    0.947137E-03    0.213210E+07    0.784837E+03    0.730000E+00    0.752566E-13    0.270000E+00
-.147500E+01    0.301222E+04    0.947136E-03    0.213210E+07    0.784838E+03    0.730000E+00    0.198285E-12    0.270000E+00
-.142500E+01    0.301226E+04    0.947135E-03    0.213210E+07    0.784838E+03    0.730000E+00    0.516881E-12    0.270000E+00
-.137500E+01    0.301228E+04    0.947135E-03    0.213210E+07    0.784838E+03    0.730000E+00    0.133292E-11    0.270000E+00
-.132500E+01    0.301227E+04    0.947134E-03    0.213210E+07    0.784838E+03    0.730000E+00    0.339997E-11    0.270000E+00
-.127500E+01    0.301225E+04    0.947134E-03    0.213210E+07    0.784838E+03    0.730000E+00    0.857717E-11    0.270000E+00
-.122500E+01    0.301225E+04    0.947134E-03    0.213210E+07    0.784839E+03    0.730000E+00    0.213967E-10    0.270000E+00
-.117500E+01    0.301228E+04    0.947133E-03    0.213210E+07    0.784839E+03    0.730000E+00    0.527736E-10    0.270000E+00
-.112500E+01    0.301236E+04    0.947132E-03    0.213209E+07    0.784838E+03    0.730000E+00    0.128672E-09    0.270000E+00
-.107500E+01    0.301241E+04    0.947131E-03    0.213209E+07    0.784839E+03    0.730000E+00    0.310079E-09    0.270000E+00
-.102500E+01    0.301240E+04    0.947130E-03    0.213209E+07    0.784839E+03    0.730000E+00    0.738430E-09    0.270000E+00
-.975000E+00    0.301233E+04    0.947131E-03    0.213209E+07    0.784840E+03    0.730000E+00    0.173745E-08    0.270000E+00
-.925000E+00    0.301226E+04    0.947132E-03    0.213210E+07    0.784840E+03    0.730000E+00    0.403827E-08    0.270000E+00
-.875000E+00    0.301227E+04    0.947131E-03    0.213210E+07    0.784841E+03    0.730000E+00    0.926975E-08    0.270000E+00
-.825000E+00    0.301244E+04    0.947128E-03    0.213209E+07    0.784840E+03    0.730000E+00    0.210103E-07    0.270000E+00
-.775000E+00    0.301262E+04    0.947123E-03    0.213208E+07    0.784840E+03    0.730000E+00    0.470099E-07    0.270000E+00
-.725000E+00    0.301265E+04    0.947121E-03    0.213208E+07    0.784841E+03    0.730000E+00    0.103807E-06    0.270000E+00
-.675000E+00    0.301243E+04    0.947122E-03    0.213209E+07    0.784842E+03    0.730000E+00    0.226171E-06    0.270000E+00
-.625000E+00    0.301214E+04    0.947124E-03    0.213210E+07    0.784844E+03    0.730000E+00    0.486062E-06    0.269999E+00
-.575000E+00    0.301203E+04    0.947120E-03    0.213211E+07    0.784843E+03    0.730000E+00    0.103005E-05    0.269999E+00
-.525000E+00    0.301241E+04    0.947105E-03    0.213209E+07    0.784836E+03    0.729999E+00    0.215174E-05    0.269998E+00
-.475000E+00    0.301305E+04    0.947078E-03    0.213206E+07    0.784824E+03    0.729999E+00    0.442929E-05    0.269997E+00
-.425000E+00    0.301316E+04    0.947038E-03    0.213205E+07    0.784805E+03    0.729997E+00    0.898111E-05    0.269994E+00
-.375000E+00    0.301253E+04    0.946978E-03    0.213208E+07    0.784773E+03    0.729994E+00    0.179310E-04    0.269988E+00
-.325000E+00    0.301128E+04    0.946858E-03    0.213213E+07    0.784709E+03    0.729989E+00    0.352346E-04    0.269976E+00
-.275000E+00    0.301172E+04    0.946591E-03    0.213211E+07    0.784576E+03    0.729978E+00    0.681108E-04    0.269954E+00
-.225000E+00    0.301327E+04    0.946081E-03    0.213203E+07    0.784325E+03    0.729959E+00    0.129460E-03    0.269912E+00
-.175000E+00    0.301402E+04    0.945178E-03    0.213199E+07    0.783878E+03    0.729924E+00    0.241842E-03    0.269835E+00
-.125000E+00    0.301189E+04    0.943619E-03    0.213211E+07    0.783098E+03    0.729861E+00    0.443844E-03    0.269695E+00
-.750000E-01    0.301080E+04    0.940825E-03    0.213216E+07    0.781724E+03    0.729751E+00    0.799956E-03    0.269449E+00
-.250000E-01    0.301341E+04    0.935959E-03    0.213203E+07    0.779363E+03    0.729564E+00    0.141564E-02    0.269021E+00
0.250000E-01    0.301384E+04    0.927877E-03    0.213202E+07    0.775469E+03    0.729248E+00    0.246008E-02    0.268292E+00
0.750000E-01    0.301186E+04    0.914768E-03    0.213214E+07    0.769217E+03    0.728726E+00    0.420017E-02    0.267074E+00
0.125000E+00    0.301321E+04    0.894048E-03    0.213210E+07    0.759497E+03    0.727874E+00    0.705089E-02    0.265075E+00
0.175000E+00    0.301478E+04    0.862709E-03    0.213208E+07    0.745099E+03    0.726506E+00    0.116417E-01    0.261852E+00
0.225000E+00    0.301478E+04    0.818090E-03    0.213215E+07    0.725197E+03    0.724367E+00    0.188304E-01    0.256802E+00
0.275000E+00    0.301510E+04    0.760905E-03    0.213217E+07    0.700693E+03    0.721233E+00    0.293466E-01    0.249420E+00
0.325000E+00    0.301459E+04    0.699214E-03    0.213215E+07    0.675482E+03    0.717231E+00    0.427168E-01    0.240052E+00
0.375000E+00    0.301452E+04    0.644621E-03    0.213211E+07    0.654211E+03    0.713007E+00    0.567673E-01    0.230226E+00
0.425000E+00    0.301525E+04    0.603055E-03    0.213210E+07    0.638664E+03    0.709252E+00    0.692241E-01    0.221524E+00
0.475000E+00    0.301545E+04    0.573890E-03    0.213209E+07    0.628085E+03    0.706284E+00    0.790668E-01    0.214650E+00
0.525000E+00    0.301482E+04    0.554273E-03    0.213205E+07    0.621120E+03    0.704109E+00    0.862793E-01    0.209612E+00
0.575000E+00    0.301571E+04    0.541455E-03    0.213208E+07    0.616633E+03    0.702602E+00    0.912834E-01    0.206114E+00
0.625000E+00    0.301702E+04    0.533269E-03    0.213213E+07    0.613794E+03    0.701603E+00    0.946094E-01    0.203788E+00
0.675000E+00    0.301548E+04    0.528131E-03    0.213207E+07    0.612020E+03    0.700963E+00    0.967437E-01    0.202293E+00
0.725000E+00    0.301414E+04    0.524976E-03    0.213201E+07    0.610934E+03    0.700567E+00    0.980736E-01    0.201360E+00
0.775000E+00    0.301595E+04    0.523097E-03    0.213208E+07    0.610291E+03    0.700327E+00    0.988816E-01    0.200792E+00
0.825000E+00    0.301759E+04    0.521989E-03    0.213214E+07    0.609913E+03    0.700185E+00    0.993617E-01    0.200453E+00
0.875000E+00    0.301616E+04    0.521331E-03    0.213209E+07    0.609688E+03    0.700103E+00    0.996414E-01    0.200255E+00
0.925000E+00    0.301451E+04    0.520949E-03    0.213203E+07    0.609556E+03    0.700057E+00    0.998015E-01    0.200141E+00
0.975000E+00    0.301482E+04    0.520744E-03    0.213205E+07    0.609487E+03    0.700031E+00    0.998915E-01    0.200077E+00
0.102500E+01    0.301584E+04    0.520635E-03    0.213208E+07    0.609450E+03    0.700017E+00    0.999413E-01    0.200041E+00
0.107500E+01    0.301659E+04    0.520577E-03    0.213211E+07    0.609431E+03    0.700010E+00    0.999685E-01    0.200022E+00
0.112500E+01    0.301649E+04    0.520543E-03    0.213211E+07    0.609419E+03    0.700005E+00    0.999832E-01    0.200011E+00
0.117500E+01    0.301569E+04    0.520520E-03    0.213208E+07    0.609410E+03    0.700003E+00    0.999910E-01    0.200006E+00
0.122500E+01    0.301532E+04    0.520508E-03    0.213207E+07    0.609406E+03    0.700002E+00    0.999952E-01    0.200003E+00
0.127500E+01    0.301544E+04    0.520504E-03    0.213207E+07    0.609404E+03    0.700001E+00    0.999974E-01    0.200001E+00
0.132500E+01    0.301581E+04    0.520504E-03    0.213208E+07    0.609403E+03    0.700001E+00    0.999986E-01    0.200001E+00
0.137500E+01    0.301608E+04    0.520505E-03    0.213210E+07    0.609404E+03    0.700000E+00    0.999993E-01    0.200000E+00
0.142500E+01    0.301611E+04    0.520504E-03    0.213210E+07    0.609403E+03    0.700000E+00    0.999997E-01    0.200000E+00
0.147500E+01    0.301595E+04    0.520502E-03    0.213209E+07    0.609402E+03    0.700000E+00    0.100000E+00    0.200000E+00
0.152500E+01    0.301577E+04    0.520501E-03    0.213208E+07    0.609402E+03    0.700000E+00    0.100000E+00    0.200000E+00
0.157500E+01    0.301575E+04    0.520501E-03    0.213208E+07    0.609401E+03    0.700000E+00    0.100000E+00    0.200000E+00
0.162500E+01    0.301582E+04    0.520502E-03    0.213208E+07    0.609401E+03    0.700000E+00    0.100000E+00    0.200000E+00
0.167500E+01    0.301597E+04    0.520503E-03    0.213209E+07    0.609401E+03    0.700000E+00    0.100000E+00    0.200000E+00
0.172500E+01    0.301602E+04    0.520503E-03    0.213209E+07    0.609401E+03    0.700000E+00    0.100000E+00    0.200000E+00
0.177500E+01    0.301601E+04    0.520504E-03    0.213209E+07    0.609401E+03    0.700000E+00    0.100000E+00    0.200000E+00
0.182500E+01    0.301596E+04    0.520503E-03    0.213209E+07    0.609401E+03    0.700000E+00    0.100000E+00    0.200000E+00
0.187500E+01    0.301592E+04    0.520503E-03    0.213209E+07    0.609401E+03    0.700000E+00    0.100000E+00    0.200000E+00
0.192500E+01    0.301592E+04    0.520504E-03    0.213209E+07    0.609401E+03    0.700000E+00    0.100000E+00    0.200000E+00